HEADER
"PSFversion" "1.00"
"design" "(\"PLL\" \"pll_mix\" \"config\" \"\")"
"simulator" "spectre"
"temperature" "27"
"host" ""
"date" "Jan  8 14:06:36 2023"
"title" ""
"analysisList" "()"
END
