HEADER
"PSFversion" "1.00"
"Time Stamp" "Jan  8 14:06:36 2023"
TYPE
"variable" STRUCT(
"value" FLOAT DOUBLE
) PROP( "key" "element" )
VALUE
"temp" "variable" ( 27 ) PROP( )
END
