HEADER
"PSFversion" "1.00"
"sigincv" "\:sigincv"
"sigdecv" "\:sigdecv"
"voutv" "\:voutv"
"vsrcv" "\:vsrcv"
