HEADER
"PSFversion" "1.00"
"rstv" "rstv"
