HEADER
"PSFversion" "1.00"
"sin_inv" "\:sin_inv"
"pulse_outv" "\:pulse_outv"
