HEADER
"PSFversion" "1.00"
"vin_Av" "\:vin_Av"
"vin_Bv" "\:vin_Bv"
"sigout_Av" "\:sigout_Av"
"sigout_Bv" "\:sigout_Bv"
