HEADER
"PSFversion" "1.00"
"inv" "\:inv"
"vctrlv" "\:vctrlv"
