HEADER
"PSFversion" "1.00"
"I0n" "PLL_pfd_veriloga"
"I1n" "PLL_cp_veriloga"
"I2n" "PLL_LF_veriloga"
"I3n" "PLL_vco_veriloga"
"I4n" "PLL_sin2pulse_veriloga"
"I5n" "PLL_divider_d_functional"
"I6n" "PLL_stimulus_D_functional"
