HEADER
"PSFversion" "1.00"
"vinv" "\:vinv"
"voutv" "\:voutv"
