HEADER
"PSFversion" "1.00"
"outv" "outv"
"inv" "inv"
"rstv" "rstv"
